 Gaussian 16, Revision C.01,
 Gaussian 16:  ES64L-G16RevC.01  3-Jul-2019

 ----------------------------------------------------------------------
 #p B3LYP 6-311++G** empiricaldispersion=gd3bj pop=nbo scf=tight scrf=(
 pcm,solvent=Toluene)
 ----------------------------------------------------------------------

 --------------------------
 reactant fragmant from S15
 --------------------------
 Symbolic Z-matrix:
 Charge =  1 Multiplicity = 1

                         Standard orientation:
 ---------------------------------------------------------------------
 Center     Atomic      Atomic             Coordinates (Angstroms)
 Number     Number       Type             X           Y           Z
 ---------------------------------------------------------------------
      1          6           0       -4.553692   -0.263963   -0.477979
      2          6           0       -4.204902   -1.380613    0.334689
      3          6           0       -4.959344   -2.558018    0.337179
      4          6           0       -6.018060   -2.637521   -0.553048
      5          6           0       -6.351562   -1.558587   -1.402458
      6          6           0       -5.645871   -0.369981   -1.361942
      7          6           0       -3.609166    0.771011   -0.192628
      8          6           0       -2.707826    0.251011    0.730056
      9          1           0       -4.706610   -3.378153    0.994816
     10          1           0       -6.586681   -3.558318   -0.615506
     11          1           0       -7.172000   -1.670774   -2.103663
     12          1           0       -5.901157    0.448038   -2.023061
     13          7           0       -3.061955   -1.056359    1.030892
     14          1           0       -2.620352   -1.645235    1.720963
     15          6           0       -1.460681    0.909100    1.095925
     16          6           0       -3.450576    2.083658   -0.897741
     17          6           0       -1.976400    2.536700   -1.128207
     18          7           0       -1.005692    1.514444   -0.669347
     19          1           0       -3.942852    2.014263   -1.870799
     20          1           0       -3.963707    2.882843   -0.346922
     21          1           0       -1.804632    2.663141   -2.197546
     22          1           0       -1.736088    3.469483   -0.618582
     23          6           0        0.374578    1.868726   -0.656858
     24          8           0        0.830184    2.839580   -0.109937
     25          8           0        1.029477    0.870812   -1.277137
     26          1           0       -1.139134    0.623859   -1.199422
     27          6           0        2.357319    0.527106   -1.089850
     28          6           0        3.286346    1.275913   -0.367584
     29          6           0        2.677541   -0.704304   -1.666381
     30          6           0        4.563669    0.748040   -0.197825
     31          1           0        3.016873    2.234696    0.049283
     32          6           0        3.952206   -1.222644   -1.499150
     33          1           0        1.912382   -1.240692   -2.213570
     34          6           0        4.876537   -0.489479   -0.755877
     35          1           0        5.318994    1.285385    0.361231
     36          1           0        4.231161   -2.176760   -1.922862
     37          7           0        6.219646   -1.042316   -0.555521
     38          8           0        6.476651   -2.126266   -1.082095
     39          8           0        7.010301   -0.395085    0.131305
     40          6           0       -1.637640    2.231583    1.816957
     41          6           0       -0.279518    0.083676    1.498888
     42          6           0        0.658032    0.579783    2.421873
     43          6           0       -0.013828   -1.147198    0.867697
     44          6           0        1.820243   -0.131451    2.711328
     45          1           0        0.490344    1.528515    2.916138
     46          6           0        1.161750   -1.840195    1.143287
     47          1           0       -0.689399   -1.515917    0.107043
     48          6           0        2.080782   -1.339794    2.066307
     49          1           0        2.529798    0.270173    3.428049
     50          1           0        1.378576   -2.755913    0.602462
     51          1           0        3.001843   -1.878538    2.267428
     52          1           0       -2.533322    2.747583    1.473808
     53          1           0       -1.788432    2.006566    2.878879
     54          1           0       -0.772124    2.887686    1.712644
 ---------------------------------------------------------------------

 SCF Done:  E(RB3LYP) =  -1431.27786180     A.U. after   17 cycles

 The electronic state is 1-A.
 Alpha  occ. eigenvalues --  -19.28018 -19.21849 -19.20449 -19.20431 -14.59919
 Alpha  occ. eigenvalues --  -14.48707 -14.42586 -10.43722 -10.34613 -10.32786
 Alpha  occ. eigenvalues --  -10.30279 -10.29013 -10.28618 -10.27218 -10.26910
 Alpha  occ. eigenvalues --  -10.25942 -10.25748 -10.25696 -10.25513 -10.25407
 Alpha  occ. eigenvalues --  -10.25325 -10.25323 -10.25239 -10.24792 -10.24606
 Alpha  occ. eigenvalues --  -10.24604 -10.24439 -10.23687 -10.22947 -10.22900
 Alpha  occ. eigenvalues --  -10.22652 -10.22076  -1.27736  -1.22918  -1.14331
 Alpha  occ. eigenvalues --   -1.10452  -1.06352  -1.04983  -0.95127  -0.94436
 Alpha  occ. eigenvalues --   -0.90665  -0.90186  -0.88181  -0.87052  -0.83506
 Alpha  occ. eigenvalues --   -0.83295  -0.82476  -0.81436  -0.79880  -0.79222
 Alpha  occ. eigenvalues --   -0.78400  -0.73562  -0.72861  -0.71255  -0.69846
 Alpha  occ. eigenvalues --   -0.68827  -0.67663  -0.67467  -0.66421  -0.63953
 Alpha  occ. eigenvalues --   -0.63861  -0.62892  -0.61106  -0.60607  -0.60166
 Alpha  occ. eigenvalues --   -0.58833  -0.58513  -0.58373  -0.57259  -0.56701
 Alpha  occ. eigenvalues --   -0.55557  -0.54458  -0.54151  -0.53795  -0.53021
 Alpha  occ. eigenvalues --   -0.52666  -0.52256  -0.50985  -0.50719  -0.50701
 Alpha  occ. eigenvalues --   -0.49982  -0.49797  -0.49634  -0.49164  -0.48696
 Alpha  occ. eigenvalues --   -0.47842  -0.47650  -0.47013  -0.46279  -0.46146
 Alpha  occ. eigenvalues --   -0.45733  -0.44818  -0.43857  -0.43363  -0.42681
 Alpha  occ. eigenvalues --   -0.42593  -0.42070  -0.41549  -0.41030  -0.39882
 Alpha  occ. eigenvalues --   -0.39438  -0.38981  -0.36400  -0.36361  -0.34523
 Alpha  occ. eigenvalues --   -0.34352  -0.34051  -0.33495  -0.32594  -0.32409
 Alpha  occ. eigenvalues --   -0.29083  -0.27558
 Alpha virt. eigenvalues --   -0.15883  -0.14627  -0.10324  -0.08926  -0.08588
 Alpha virt. eigenvalues --   -0.08313  -0.06478  -0.05717  -0.04768  -0.04484
 Alpha virt. eigenvalues --   -0.04376  -0.03777  -0.03685  -0.03223  -0.02853

 Mulliken charges:
               1
     1  C    1.615328
     2  C   -0.709424
     3  C   -0.638792
     4  C   -0.300753
     5  C   -0.277520
     6  C   -0.542741
     7  C    0.717892
     8  C   -0.569514
     9  H    0.177670
    10  H    0.198093
    11  H    0.197323
    12  H    0.150757
    13  N    0.143165
    14  H    0.336976
    15  C    0.046638
    16  C   -0.717974
    17  C   -0.130799
    18  N    0.110965
    19  H    0.197238
    20  H    0.239088
    21  H    0.252335
    22  H    0.230388
    23  C   -0.412612
    24  O   -0.073636
    25  O    0.178894
    26  H    0.349692
    27  C    0.140976
    28  C    0.183862
    29  C   -0.163596
    30  C   -0.120866
    31  H    0.251589
    32  C   -0.355133
    33  H    0.206329
    34  C   -0.054602
    35  H    0.284131
    36  H    0.284752
    37  N   -0.220126
    38  O   -0.000676
    39  O    0.000620
    40  C   -0.541200
    41  C    0.312509
    42  C   -0.254201
    43  C   -0.598211
    44  C   -0.463992
    45  H    0.204071
    46  C   -0.273999
    47  H    0.247990
    48  C   -0.149666
    49  H    0.227142
    50  H    0.219225
    51  H    0.198037
    52  H    0.208836
    53  H    0.235932
    54  H    0.221588
 Sum of Mulliken charges =   1.00000

 Dipole moment (field-independent basis, Debye):
    X=            -10.0275    Y=              2.9604    Z=              0.3845  Tot=             10.4625
 Quadrupole moment (field-independent basis, Debye-Ang):
   XX=           -185.4792   YY=           -160.4177   ZZ=           -163.1156
   XY=              6.1719   XZ=             10.1724   YZ=             -3.8202

 Summary of Natural Population Analysis:

                                       Natural Population
                Natural  -----------------------------------------------
    Atom  No    Charge         Core      Valence    Rydberg      Total
 -----------------------------------------------------------------------
      C    1   -0.00779      1.99895     3.99165    0.01719     6.00779
      C    2    0.15156      1.99907     3.81899    0.03037     5.84844
      C    3   -0.23989      1.99910     4.22118    0.01960     6.23989
      C    4   -0.16706      1.99896     4.14772    0.02039     6.16706
      C    5   -0.20624      1.99894     4.18622    0.02108     6.20624
      C    6   -0.20457      1.99902     4.17701    0.02855     6.20457
      C    7   -0.10408      1.99906     4.07013    0.03489     6.10408
      C    8    0.20315      1.99870     3.76269    0.03546     5.79685
      H    9    0.22168      0.00000     0.77644    0.00188     0.77832
      H   10    0.21588      0.00000     0.78122    0.00290     0.78412
      H   11    0.22010      0.00000     0.77846    0.00144     0.77990
      H   12    0.21681      0.00000     0.78165    0.00154     0.78319
      N   13   -0.56274      1.99932     5.53370    0.02973     7.56274
      H   14    0.42637      0.00000     0.57001    0.00362     0.57363
      C   15    0.19452      1.99900     3.76843    0.03806     5.80548
      C   16   -0.42512      1.99919     4.41113    0.01480     6.42512
      C   17   -0.16669      1.99923     4.15064    0.01681     6.16669
      N   18   -0.56637      1.99941     5.54372    0.02325     7.56637
      H   19    0.23612      0.00000     0.76128    0.00260     0.76388
      H   20    0.24219      0.00000     0.75573    0.00208     0.75781
      H   21    0.22941      0.00000     0.76903    0.00155     0.77059
      H   22    0.23388      0.00000     0.76460    0.00151     0.76612
      C   23    0.96322      1.99937     2.98705    0.05037     5.03678
      O   24   -0.55183      1.99972     6.54181    0.01029     8.55183
      O   25   -0.53101      1.99964     6.51324    0.01812     8.53101
      H   26    0.44049      0.00000     0.55680    0.00271     0.55951
      C   27    0.31597      1.99872     3.65892    0.02640     5.68403
      C   28   -0.23929      1.99903     4.22537    0.01488     6.23929
      C   29   -0.21180      1.99905     4.19625    0.01650     6.21180
      C   30   -0.15302      1.99907     4.13639    0.01756     6.15302
      H   31    0.25505      0.00000     0.74306    0.00189     0.74495
      C   32   -0.16260      1.99906     4.14595    0.01759     6.16260
      H   33    0.23472      0.00000     0.76358    0.00170     0.76528
      C   34    0.06681      1.99878     3.91294    0.02148     5.93319
      H   35    0.25367      0.00000     0.74421    0.00212     0.74633
      H   36    0.25375      0.00000     0.74415    0.00211     0.74625
      N   37    0.48389      1.99943     4.46209    0.05460     6.51611
      O   38   -0.38201      1.99980     6.36764    0.01457     8.38201
      O   39   -0.38001      1.99980     6.36561    0.01460     8.38001
      C   40   -0.62941      1.99918     4.61083    0.01939     6.62941
      C   41   -0.14892      1.99887     4.12514    0.02491     6.14892
      C   42   -0.15919      1.99906     4.14419    0.01594     6.15919
      C   43   -0.18068      1.99905     4.16498    0.01664     6.18068
      C   44   -0.18437      1.99914     4.16795    0.01728     6.18437
      H   45    0.22471      0.00000     0.77314    0.00215     0.77529
      C   46   -0.19231      1.99915     4.17495    0.01822     6.19231
      H   47    0.21852      0.00000     0.77897    0.00252     0.78148
      C   48   -0.15263      1.99914     4.13625    0.01725     6.15263
      H   49    0.22652      0.00000     0.77189    0.00159     0.77348
      H   50    0.22487      0.00000     0.77347    0.00166     0.77513
      H   51    0.22596      0.00000     0.77246    0.00158     0.77404
      H   52    0.23094      0.00000     0.76731    0.00175     0.76906
      H   53    0.25720      0.00000     0.74106    0.00174     0.74280
      H   54    0.24280      0.00000     0.75567    0.00153     0.75720
 =======================================================================
   * Total *    1.00112     63.97302   159.24496    0.78091   223.99888

 Normal termination of Gaussian 16 at Fri Mar 21 16:58:28 2025.
